% Model:              RRDE- Voltammetry at PBO2 DISK - Scan Rate 0.1mV -10mV with reference electrode - Copy - Copy.mph
% Version:            COMSOL 5.3.1.348
% Date:               May 29 2020, 11:06
% Dimension:          1
% Nodes:              237
% Elements:           236
% Expressions:        1
% Description:        Global
% Coordinates
1
1.0000000035762695
1.000000014304969
1.0000000321857696
1.0000000894012826
1.0000001752158205
1.000000289618907
1.000000432596579
1.0000006041313878
1.0000008042023927
1.0000010327851732
1.000001575370998
1.000002231624007
1.000003001223883
1.0000038837950418
1.0000048789068317
1.0000059860737682
1.0000072047558008
1.0000085343586305
1.0000099742340165
1.0000131819420432
1.0000168216298104
1.000020886210618
1.0000253677770927
1.0000302576191133
1.000035546243709
1.0000412233969094
1.0000536986130975
1.0000675869701534
1.0000827817233324
1.000099166725759
1.0001166175993201
1.0001541861961738
1.0001943802766928
1.0002360569600717
1.0002780973172323
1.0003194740127737
1.000359326993567
1.0003970472239727
1.0004654671160875
1.0005283203124988
1.000590820312499
1.000653320312501
1.0007158203125004
1.0007783203124982
1.0008408203125
1.0009658203124991
1.0010783203125007
1.0011908203124997
1.001303320312501
1.0014158203125
1.0015283203125
1.0016408203124991
1.0017533203124993
1.0018658203124993
1.0020908203125007
1.0023158203125007
1.0025408203125004
1.0027658203125012
1.0029908203125
1.0034408203124972
1.0038458203125005
1.0046558203125016
1.0054658203125
1.0062758203124988
1.0078958203124984
1.0095158203124996
1.0111358203125014
1.0143758203125
1.0208558203124987
1.0266878203125003
1.0325198203124986
1.0383518203125
1.0441838203124982
1.0500158203124972
1.0558478203125008
1.0616798203124975
1.0675118203124998
1.071646269420719
1.0757807185289392
1.0840496167453766
1.0892601009590768
1.094470585172778
1.0996810693864796
1.1048915536001807
1.1101020378138837
1.1153125220275835
1.1205230062412843
1.1257334904549852
1.1309439746686891
1.135633410461016
1.1414373777205506
1.1472413449800885
1.1530453122396258
1.1588492794991598
1.1646532467586987
1.1704572140182339
1.1762611812777684
1.1820651485373046
1.1878691157968417
1.1936730830563764
1.1994770503159122
1.2052810175754456
1.2105045881090297
1.2167000385179938
1.2228954889269579
1.2290909393359217
1.235286389744884
1.2414818401538497
1.2476772905628122
1.2538727409717758
1.2600681913807399
1.2662636417897037
1.2724590921986694
1.2786545426076312
1.2860009767933727
1.2933474109791163
1.300693845164855
1.308040279350597
1.315386713536339
1.3227331477220763
1.3300795819078182
1.3374260160935592
1.347325583091942
1.357225150090324
1.367124717088706
1.3770242840870872
1.3869238510854653
1.3968234180838515
1.406722985082228
1.4166225520806113
1.4265221190789903
1.4364216860773704
1.4463212530757517
1.4661203870725181
1.4859195210692777
1.506614226999694
1.527308932930103
1.5480036388605183
1.5585860906477342
1.5691685424349533
1.5786927490434395
1.5870414777616304
1.5944292726491058
1.6010782880478387
1.607062401906694
1.612448104379667
1.6178338068526381
1.623219509325607
1.6339909142715525
1.6436851787228957
1.6545955404884551
1.6655059022540124
1.6764162640195601
1.6873266257851238
1.6982369875506707
1.7091473493162308
1.7309680728473442
1.752788796378457
1.7746095199095648
1.8182509669717897
1.9055338610962282
1.9928167552206695
1.9994990004999973
1.9995009995099466
1.9985009995000003
1.9965009994999996
1.9925009995000007
1.9845009994999967
1.9685009994999962
1.9365009994999995
1.9045009994999986
1.8725009995
1.808500999500001
1.744500999499998
1.6165009994999986
1.546779160286244
1.5031054889222182
1.4731768764806337
1.4432482640390476
1.4177523393656553
1.396671338909698
1.383921765605875
1.3711721923020568
1.3596975763286185
1.3482229603551772
1.3378958059790813
1.3275686516029883
1.317241497226895
1.306927649390935
1.2966138015549786
1.2862999537190187
1.280776261549791
1.2752525693805619
1.2702812464282534
1.2658504122356475
1.2620631332787566
1.2587252683887933
1.2557703961253177
1.2531110110881907
1.2507175645547757
1.2485634626746998
1.2466247709826346
1.2446860792905663
1.2429412567677094
1.2411964342448478
1.239626093974273
1.2380557537036996
1.2364854134331225
1.2333447328919758
1.2305181204049427
1.2276915079179105
1.2248648954308743
1.2220382829438434
1.21921167045681
1.216385057969775
1.2135584454827437
1.2107318329957097
1.207905220508676
1.2050786080216405
1.2022519955346085
1.1994253830475756
1.1965987705605392
1.193772158073506
1.1881189330994417
1.182465708125373
1.1768124831513087
1.1711592581772399
1.159852808229109
1.148546358280974
1.1372399083328404
1.1146270084365746
1.0920141085403068
1.0694012086440405
1.046788308747772
1.0015625089552367
1.0005009994999992
% Elements (lines)
1          2
2          3
3          4
4          5
5          6
6          7
7          8
8          9
9          10
10         11
11         12
12         13
13         14
14         15
15         16
16         17
17         18
18         19
19         20
20         21
21         22
22         23
23         24
24         25
25         26
26         27
27         28
28         29
29         30
30         31
31         32
32         33
33         34
34         35
35         36
36         37
37         38
38         39
39         40
40         41
41         42
42         43
43         44
44         45
45         46
46         47
47         48
48         49
49         50
50         51
51         52
52         53
53         54
54         55
55         56
56         57
57         58
58         59
59         60
60         61
61         62
62         63
63         64
64         65
65         66
66         67
67         68
68         69
69         70
70         71
71         72
72         73
73         74
74         75
75         76
76         77
77         78
78         79
79         80
80         81
81         82
82         83
83         84
84         85
85         86
86         87
87         88
88         89
89         90
90         91
91         92
92         93
93         94
94         95
95         96
96         97
97         98
98         99
99         100
100        101
101        102
102        103
103        104
104        105
105        106
106        107
107        108
108        109
109        110
110        111
111        112
112        113
113        114
114        115
115        116
116        117
117        118
118        119
119        120
120        121
121        122
122        123
123        124
124        125
125        126
126        127
127        128
128        129
129        130
130        131
131        132
132        133
133        134
134        135
135        136
136        137
137        138
138        139
139        140
140        141
141        142
142        143
143        144
144        145
145        146
146        147
147        148
148        149
149        150
150        151
151        152
152        153
153        154
154        155
155        156
156        157
157        158
158        159
159        160
160        161
161        162
162        163
163        164
164        165
165        166
166        167
167        168
168        169
169        170
170        171
171        172
172        173
173        174
174        175
175        176
176        177
177        178
178        179
179        180
180        181
181        182
182        183
183        184
184        185
185        186
186        187
187        188
188        189
189        190
190        191
191        192
192        193
193        194
194        195
195        196
196        197
197        198
198        199
199        200
200        201
201        202
202        203
203        204
204        205
205        206
206        207
207        208
208        209
209        210
210        211
211        212
212        213
213        214
214        215
215        216
216        217
217        218
218        219
219        220
220        221
221        222
222        223
223        224
224        225
225        226
226        227
227        228
228        229
229        230
230        231
231        232
232        233
233        234
234        235
235        236
236        237
% Data (Height)
1.1119236425231722E-5
1.0742387993400429E-5
1.0378365568944771E-5
1.0026688040756175E-5
9.351585382301029E-6
8.718269062799705E-6
8.127277668527175E-6
7.576677321260038E-6
7.063731373967557E-6
6.585726891303854E-6
6.140193958561355E-6
5.334542950593992E-6
4.633804714454175E-6
4.0250807891133215E-6
3.496520768834989E-6
3.0376425627721023E-6
2.6392849298878868E-6
2.293474953785923E-6
1.99349930145422E-6
1.7331589546705978E-6
1.3054555560545984E-6
9.824298360965786E-7
7.398038099201368E-7
5.580437902744994E-7
4.2207972150678084E-7
3.204743726467042E-7
2.448843029529775E-7
1.4117386196580668E-7
8.383560358499984E-8
5.3756679114279035E-8
3.88201541948604E-8
3.217116433645873E-8
2.6833224012022767E-8
2.756356092133516E-8
2.9443246765313382E-8
3.058357127026724E-8
3.069189579956108E-8
2.995380208698928E-8
2.8420806277248552E-8
2.527050543399974E-8
2.326338947249986E-8
2.3199115480993812E-8
2.3447193489392873E-8
2.3565522468306703E-8
2.3610674566752892E-8
2.363406615806363E-8
2.3753909320730583E-8
2.3872529741356816E-8
2.3981442207971437E-8
2.4087283674966754E-8
2.419412223923876E-8
2.4302000338468385E-8
2.4411035023937076E-8
2.451952996446276E-8
2.4628767135912935E-8
2.4848471945373085E-8
2.5070588644137687E-8
2.5294810409000693E-8
2.5520893442070806E-8
2.575311265676689E-8
2.6212242443650686E-8
2.665291603001436E-8
2.7491620500359842E-8
2.913050623763745E-8
3.712244523719357E-8
3.377171526810024E-8
3.696935026770249E-8
4.1131102381477195E-8
5.439328024313303E-8
5.888562213449635E-8
6.918347528200879E-8
8.324645367677958E-8
1.0267689164080166E-7
1.291288279563817E-7
1.6254247320094374E-7
2.045340668803484E-7
2.5738513226741685E-7
6.996377695875872E-7
4.080054407731123E-7
9.908391678487049E-8
3.9960689066439196E-7
7.543509435548568E-7
9.397898063724102E-7
1.1485714751226502E-6
1.4072307394880016E-6
1.7244053534328684E-6
2.112238515400963E-6
2.5861287071289745E-6
3.7220343219414356E-6
3.979718861232052E-6
4.564943637528647E-6
5.756906241583621E-6
7.214967641131543E-6
9.002214843173521E-6
1.121309968540658E-5
1.3948264064361412E-5
1.7324846970905173E-5
2.1482955700507256E-5
2.6589848006820843E-5
3.28439048622177E-5
4.047882160883223E-5
5.138374681772381E-5
6.201485994718019E-5
7.38745876547159E-5
9.066283687237916E-5
1.1132704951128738E-4
1.3643548838712929E-4
1.6663597029039072E-4
2.026944549231194E-4
2.4547934719226E-4
2.959464400403822E-4
3.551293277707095E-4
4.256357963877377E-4
5.055764469183558E-4
5.98528837496479E-4
7.248412099056481E-4
8.722804551558973E-4
0.0010434001856016457
0.0012405860589262668
0.001466256423630934
0.0017239444603362232
0.0020142304014250214
0.002341299499897386
0.0028426704133416004
0.0034217220180210125
0.004085830868824009
0.00484221550304322
0.005697903104086315
0.006659420378432259
0.00773228171638794
0.008920266383882386
0.010224475749342888
0.011642049941961519
0.013164711347154506
0.01644895474765275
0.019843066885636463
0.023027186805812106
0.025112307441703355
0.025238521793304186
0.024273407862628115
0.022646931763488323
0.020641320505137572
0.01851931263943341
0.01642838190161296
0.014442776574343326
0.012624977979438562
0.011005036708533396
0.009454058129223133
0.008001635491857048
0.005247198906693875
0.003291518195001067
0.001789586187660211
9.579311912174418E-4
6.035560957350853E-4
5.121971533547082E-4
5.207391425329324E-4
5.347729645938476E-4
5.615577065998385E-4
5.47285982386729E-4
5.436037068257136E-4
6.137992227646849E-4
0.0018675251359839542
4.4823288657405854E-4
2.6905350802689757E-4
0.0012841403591835245
0.001067327135694705
-5.526296875125963E-4
-7.102985397911896E-4
5.7529262875042864E-5
6.905659026134645E-4
5.055328614455556E-4
4.724813569491942E-4
4.5143619595841816E-4
3.770273369907558E-4
2.721500375808072E-4
4.06459333162344E-4
2.2768385844974077E-4
-1.106628420553109E-4
-6.346496562500797E-4
-0.0016820317209087566
-0.0033661014370139266
-0.005680706813188688
-0.007653616016975153
-0.010145952662150725
-0.012867274654557606
-0.016013848701588413
-0.019112246588101966
-0.022270544886276427
-0.02517432342618567
-0.027394177781838232
-0.028409262740292644
-0.02771485895787031
-0.026533174281959032
-0.024817997887173347
-0.02283870037539522
-0.020773475760441463
-0.01882203663884888
-0.01700388027005536
-0.015349449198269718
-0.013850760330821872
-0.01251228125453509
-0.011329267390719442
-0.010291454462837185
-0.009294683431151328
-0.008431246170654924
-0.007610703671900455
-0.006906371017739138
-0.0062419703374591426
-0.005618899100590397
-0.0044384795767396295
-0.0035179364519474857
-0.0027467275743989737
-0.002120781057833159
-0.0016276558524303552
-0.001250518347279744
-9.706392117922097E-4
-7.691707520617345E-4
-6.284527141226549E-4
-5.32908017060017E-4
-4.695491965459538E-4
-4.2813031177370704E-4
-4.0100948318510984E-4
-3.8232957345895414E-4
-3.691337156698918E-4
-3.500716779656175E-4
-3.408496072739364E-4
-3.3062787957137315E-4
-3.2235512745080726E-4
-3.173941878622479E-4
-3.034424741426086E-4
-2.9505324394335085E-4
-2.877736413874201E-4
-2.841023533784711E-4
-2.808697169410269E-4
-2.778291422539645E-4
-6.213957818977018E-4
-3.964413229813174E-4
